LAMMPS data file. CGCMM style. atom_style atomic generated by VMD/TopoTools v1.8 on Tue Mar 04 23:23:26 -0500 2025
 4028 atoms
 0 bonds
 0 angles
 0 dihedrals
 0 impropers
 1 atom types
 0 bond types
 0 angle types
 0 dihedral types
 0 improper types
 0.000000 140.000000  xlo xhi
 0.000000 140.000000  ylo yhi
 0.000000 140.000000  zlo zhi

# Pair Coeffs
#
# 1  AL3

 Masses

 1 26.981539 # AL3

 Atoms # atomic

1 1 45.765999 63.942001 70.000000 # AL3
2 1 45.765999 65.960999 67.980003 # AL3
3 1 45.765999 65.960999 72.019997 # AL3
4 1 45.765999 67.980003 65.960999 # AL3
5 1 45.765999 70.000000 63.942001 # AL3
6 1 45.765999 67.980003 70.000000 # AL3
7 1 45.765999 70.000000 67.980003 # AL3
8 1 45.765999 67.980003 74.039001 # AL3
9 1 45.765999 70.000000 72.019997 # AL3
10 1 45.765999 70.000000 76.057999 # AL3
11 1 45.765999 72.019997 65.960999 # AL3
12 1 45.765999 72.019997 70.000000 # AL3
13 1 45.765999 74.039001 67.980003 # AL3
14 1 45.765999 72.019997 74.039001 # AL3
15 1 45.765999 74.039001 72.019997 # AL3
16 1 45.765999 76.057999 70.000000 # AL3
17 1 49.805000 55.862999 65.960999 # AL3
18 1 49.805000 57.882999 63.942001 # AL3
19 1 49.805000 55.862999 70.000000 # AL3
20 1 49.805000 57.882999 67.980003 # AL3
21 1 49.805000 55.862999 74.039001 # AL3
22 1 49.805000 57.882999 72.019997 # AL3
23 1 49.805000 57.882999 76.057999 # AL3
24 1 47.785000 61.922001 61.922001 # AL3
25 1 49.805000 59.903000 61.922001 # AL3
26 1 49.805000 61.922001 59.903000 # AL3
27 1 47.785000 61.922001 65.960999 # AL3
28 1 49.805000 59.903000 65.960999 # AL3
29 1 49.805000 61.922001 63.942001 # AL3
30 1 47.785000 59.903000 67.980003 # AL3
31 1 47.785000 61.922001 70.000000 # AL3
32 1 49.805000 59.903000 70.000000 # AL3
33 1 49.805000 61.922001 67.980003 # AL3
34 1 47.785000 59.903000 72.019997 # AL3
35 1 47.785000 61.922001 74.039001 # AL3
36 1 49.805000 59.903000 74.039001 # AL3
37 1 49.805000 61.922001 72.019997 # AL3
38 1 47.785000 61.922001 78.078003 # AL3
39 1 49.805000 59.903000 78.078003 # AL3
40 1 49.805000 61.922001 76.057999 # AL3
41 1 49.805000 61.922001 80.097000 # AL3
42 1 49.805000 63.942001 57.882999 # AL3
43 1 49.805000 65.960999 55.862999 # AL3
44 1 47.785000 65.960999 61.922001 # AL3
45 1 49.805000 63.942001 61.922001 # AL3
46 1 49.805000 65.960999 59.903000 # AL3
47 1 47.785000 63.942001 63.942001 # AL3
48 1 47.785000 65.960999 65.960999 # AL3
49 1 49.805000 63.942001 65.960999 # AL3
50 1 49.805000 65.960999 63.942001 # AL3
51 1 47.785000 63.942001 67.980003 # AL3
52 1 47.785000 65.960999 70.000000 # AL3
53 1 49.805000 63.942001 70.000000 # AL3
54 1 49.805000 65.960999 67.980003 # AL3
55 1 47.785000 63.942001 72.019997 # AL3
56 1 47.785000 65.960999 74.039001 # AL3
57 1 49.805000 63.942001 74.039001 # AL3
58 1 49.805000 65.960999 72.019997 # AL3
59 1 47.785000 63.942001 76.057999 # AL3
60 1 47.785000 65.960999 78.078003 # AL3
61 1 49.805000 63.942001 78.078003 # AL3
62 1 49.805000 65.960999 76.057999 # AL3
63 1 49.805000 63.942001 82.116997 # AL3
64 1 49.805000 65.960999 80.097000 # AL3
65 1 49.805000 65.960999 84.137001 # AL3
66 1 49.805000 67.980003 57.882999 # AL3
67 1 49.805000 70.000000 55.862999 # AL3
68 1 47.785000 67.980003 59.903000 # AL3
69 1 47.785000 70.000000 61.922001 # AL3
70 1 49.805000 67.980003 61.922001 # AL3
71 1 49.805000 70.000000 59.903000 # AL3
72 1 47.785000 67.980003 63.942001 # AL3
73 1 47.785000 70.000000 65.960999 # AL3
74 1 49.805000 67.980003 65.960999 # AL3
75 1 49.805000 70.000000 63.942001 # AL3
76 1 47.785000 67.980003 67.980003 # AL3
77 1 47.785000 70.000000 70.000000 # AL3
78 1 49.805000 67.980003 70.000000 # AL3
79 1 49.805000 70.000000 67.980003 # AL3
80 1 47.785000 67.980003 72.019997 # AL3
81 1 47.785000 70.000000 74.039001 # AL3
82 1 49.805000 67.980003 74.039001 # AL3
83 1 49.805000 70.000000 72.019997 # AL3
84 1 47.785000 67.980003 76.057999 # AL3
85 1 47.785000 70.000000 78.078003 # AL3
86 1 49.805000 67.980003 78.078003 # AL3
87 1 49.805000 70.000000 76.057999 # AL3
88 1 47.785000 67.980003 80.097000 # AL3
89 1 49.805000 67.980003 82.116997 # AL3
90 1 49.805000 70.000000 80.097000 # AL3
91 1 49.805000 70.000000 84.137001 # AL3
92 1 49.805000 72.019997 57.882999 # AL3
93 1 49.805000 74.039001 55.862999 # AL3
94 1 47.785000 72.019997 59.903000 # AL3
95 1 47.785000 74.039001 61.922001 # AL3
96 1 49.805000 72.019997 61.922001 # AL3
97 1 49.805000 74.039001 59.903000 # AL3
98 1 47.785000 72.019997 63.942001 # AL3
99 1 47.785000 74.039001 65.960999 # AL3
100 1 49.805000 72.019997 65.960999 # AL3
101 1 49.805000 74.039001 63.942001 # AL3
102 1 47.785000 72.019997 67.980003 # AL3
103 1 47.785000 74.039001 70.000000 # AL3
104 1 49.805000 72.019997 70.000000 # AL3
105 1 49.805000 74.039001 67.980003 # AL3
106 1 47.785000 72.019997 72.019997 # AL3
107 1 47.785000 74.039001 74.039001 # AL3
108 1 49.805000 72.019997 74.039001 # AL3
109 1 49.805000 74.039001 72.019997 # AL3
110 1 47.785000 72.019997 76.057999 # AL3
111 1 47.785000 74.039001 78.078003 # AL3
112 1 49.805000 72.019997 78.078003 # AL3
113 1 49.805000 74.039001 76.057999 # AL3
114 1 47.785000 72.019997 80.097000 # AL3
115 1 49.805000 72.019997 82.116997 # AL3
116 1 49.805000 74.039001 80.097000 # AL3
117 1 49.805000 74.039001 84.137001 # AL3
118 1 49.805000 76.057999 57.882999 # AL3
119 1 47.785000 78.078003 61.922001 # AL3
120 1 49.805000 76.057999 61.922001 # AL3
121 1 49.805000 78.078003 59.903000 # AL3
122 1 47.785000 76.057999 63.942001 # AL3
123 1 47.785000 78.078003 65.960999 # AL3
124 1 49.805000 76.057999 65.960999 # AL3
125 1 49.805000 78.078003 63.942001 # AL3
126 1 47.785000 76.057999 67.980003 # AL3
127 1 47.785000 78.078003 70.000000 # AL3
128 1 49.805000 76.057999 70.000000 # AL3
129 1 49.805000 78.078003 67.980003 # AL3
130 1 47.785000 76.057999 72.019997 # AL3
131 1 47.785000 78.078003 74.039001 # AL3
132 1 49.805000 76.057999 74.039001 # AL3
133 1 49.805000 78.078003 72.019997 # AL3
134 1 47.785000 76.057999 76.057999 # AL3
135 1 47.785000 78.078003 78.078003 # AL3
136 1 49.805000 76.057999 78.078003 # AL3
137 1 49.805000 78.078003 76.057999 # AL3
138 1 49.805000 76.057999 82.116997 # AL3
139 1 49.805000 78.078003 80.097000 # AL3
140 1 49.805000 80.097000 61.922001 # AL3
141 1 49.805000 80.097000 65.960999 # AL3
142 1 49.805000 82.116997 63.942001 # AL3
143 1 47.785000 80.097000 67.980003 # AL3
144 1 49.805000 80.097000 70.000000 # AL3
145 1 49.805000 82.116997 67.980003 # AL3
146 1 47.785000 80.097000 72.019997 # AL3
147 1 49.805000 80.097000 74.039001 # AL3
148 1 49.805000 82.116997 72.019997 # AL3
149 1 49.805000 80.097000 78.078003 # AL3
150 1 49.805000 82.116997 76.057999 # AL3
151 1 49.805000 84.137001 65.960999 # AL3
152 1 49.805000 84.137001 70.000000 # AL3
153 1 49.805000 84.137001 74.039001 # AL3
154 1 53.844002 53.844002 59.903000 # AL3
155 1 51.823997 53.844002 65.960999 # AL3
156 1 53.844002 51.823997 65.960999 # AL3
157 1 53.844002 53.844002 63.942001 # AL3
158 1 51.823997 53.844002 70.000000 # AL3
159 1 53.844002 51.823997 70.000000 # AL3
160 1 53.844002 53.844002 67.980003 # AL3
161 1 51.823997 53.844002 74.039001 # AL3
162 1 53.844002 51.823997 74.039001 # AL3
163 1 53.844002 53.844002 72.019997 # AL3
164 1 53.844002 53.844002 76.057999 # AL3
165 1 53.844002 53.844002 80.097000 # AL3
166 1 51.823997 57.882999 57.882999 # AL3
167 1 53.844002 55.862999 57.882999 # AL3
168 1 53.844002 57.882999 55.862999 # AL3
169 1 51.823997 57.882999 61.922001 # AL3
170 1 53.844002 55.862999 61.922001 # AL3
171 1 53.844002 57.882999 59.903000 # AL3
172 1 51.823997 55.862999 63.942001 # AL3
173 1 51.823997 57.882999 65.960999 # AL3
174 1 53.844002 55.862999 65.960999 # AL3
175 1 53.844002 57.882999 63.942001 # AL3
176 1 51.823997 55.862999 67.980003 # AL3
177 1 51.823997 57.882999 70.000000 # AL3
178 1 53.844002 55.862999 70.000000 # AL3
179 1 53.844002 57.882999 67.980003 # AL3
180 1 51.823997 55.862999 72.019997 # AL3
181 1 51.823997 57.882999 74.039001 # AL3
182 1 53.844002 55.862999 74.039001 # AL3
183 1 53.844002 57.882999 72.019997 # AL3
184 1 51.823997 55.862999 76.057999 # AL3
185 1 51.823997 57.882999 78.078003 # AL3
186 1 53.844002 55.862999 78.078003 # AL3
187 1 53.844002 57.882999 76.057999 # AL3
188 1 51.823997 57.882999 82.116997 # AL3
189 1 53.844002 55.862999 82.116997 # AL3
190 1 53.844002 57.882999 80.097000 # AL3
191 1 53.844002 57.882999 84.137001 # AL3
192 1 53.844002 59.903000 53.844002 # AL3
193 1 51.823997 61.922001 57.882999 # AL3
194 1 53.844002 59.903000 57.882999 # AL3
195 1 53.844002 61.922001 55.862999 # AL3
196 1 51.823997 59.903000 59.903000 # AL3
197 1 51.823997 61.922001 61.922001 # AL3
198 1 53.844002 59.903000 61.922001 # AL3
199 1 53.844002 61.922001 59.903000 # AL3
200 1 51.823997 59.903000 63.942001 # AL3
201 1 51.823997 61.922001 65.960999 # AL3
202 1 53.844002 59.903000 65.960999 # AL3
203 1 53.844002 61.922001 63.942001 # AL3
204 1 51.823997 59.903000 67.980003 # AL3
205 1 51.823997 61.922001 70.000000 # AL3
206 1 53.844002 59.903000 70.000000 # AL3
207 1 53.844002 61.922001 67.980003 # AL3
208 1 51.823997 59.903000 72.019997 # AL3
209 1 51.823997 61.922001 74.039001 # AL3
210 1 53.844002 59.903000 74.039001 # AL3
211 1 53.844002 61.922001 72.019997 # AL3
212 1 51.823997 59.903000 76.057999 # AL3
213 1 51.823997 61.922001 78.078003 # AL3
214 1 53.844002 59.903000 78.078003 # AL3
215 1 53.844002 61.922001 76.057999 # AL3
216 1 51.823997 59.903000 80.097000 # AL3
217 1 51.823997 61.922001 82.116997 # AL3
218 1 53.844002 59.903000 82.116997 # AL3
219 1 53.844002 61.922001 80.097000 # AL3
220 1 53.844002 59.903000 86.155998 # AL3
221 1 53.844002 61.922001 84.137001 # AL3
222 1 51.823997 65.960999 53.844002 # AL3
223 1 53.844002 63.942001 53.844002 # AL3
224 1 53.844002 65.960999 51.823997 # AL3
225 1 51.823997 63.942001 55.862999 # AL3
226 1 51.823997 65.960999 57.882999 # AL3
227 1 53.844002 63.942001 57.882999 # AL3
228 1 53.844002 65.960999 55.862999 # AL3
229 1 51.823997 63.942001 59.903000 # AL3
230 1 51.823997 65.960999 61.922001 # AL3
231 1 53.844002 63.942001 61.922001 # AL3
232 1 53.844002 65.960999 59.903000 # AL3
233 1 51.823997 63.942001 63.942001 # AL3
234 1 51.823997 65.960999 65.960999 # AL3
235 1 53.844002 63.942001 65.960999 # AL3
236 1 53.844002 65.960999 63.942001 # AL3
237 1 51.823997 63.942001 67.980003 # AL3
238 1 51.823997 65.960999 70.000000 # AL3
239 1 53.844002 63.942001 70.000000 # AL3
240 1 53.844002 65.960999 67.980003 # AL3
241 1 51.823997 63.942001 72.019997 # AL3
242 1 51.823997 65.960999 74.039001 # AL3
243 1 53.844002 63.942001 74.039001 # AL3
244 1 53.844002 65.960999 72.019997 # AL3
245 1 51.823997 63.942001 76.057999 # AL3
246 1 51.823997 65.960999 78.078003 # AL3
247 1 53.844002 63.942001 78.078003 # AL3
248 1 53.844002 65.960999 76.057999 # AL3
249 1 51.823997 63.942001 80.097000 # AL3
250 1 51.823997 65.960999 82.116997 # AL3
251 1 53.844002 63.942001 82.116997 # AL3
252 1 53.844002 65.960999 80.097000 # AL3
253 1 51.823997 63.942001 84.137001 # AL3
254 1 51.823997 65.960999 86.155998 # AL3
255 1 53.844002 63.942001 86.155998 # AL3
256 1 53.844002 65.960999 84.137001 # AL3
257 1 53.844002 65.960999 88.176003 # AL3
258 1 51.823997 70.000000 53.844002 # AL3
259 1 53.844002 67.980003 53.844002 # AL3
260 1 53.844002 70.000000 51.823997 # AL3
261 1 51.823997 67.980003 55.862999 # AL3
262 1 51.823997 70.000000 57.882999 # AL3
263 1 53.844002 67.980003 57.882999 # AL3
264 1 53.844002 70.000000 55.862999 # AL3
265 1 51.823997 67.980003 59.903000 # AL3
266 1 51.823997 70.000000 61.922001 # AL3
267 1 53.844002 67.980003 61.922001 # AL3
268 1 53.844002 70.000000 59.903000 # AL3
269 1 51.823997 67.980003 63.942001 # AL3
270 1 51.823997 70.000000 65.960999 # AL3
271 1 53.844002 67.980003 65.960999 # AL3
272 1 53.844002 70.000000 63.942001 # AL3
273 1 51.823997 67.980003 67.980003 # AL3
274 1 51.823997 70.000000 70.000000 # AL3
275 1 53.844002 67.980003 70.000000 # AL3
276 1 53.844002 70.000000 67.980003 # AL3
277 1 51.823997 67.980003 72.019997 # AL3
278 1 51.823997 70.000000 74.039001 # AL3
279 1 53.844002 67.980003 74.039001 # AL3
280 1 53.844002 70.000000 72.019997 # AL3
281 1 51.823997 67.980003 76.057999 # AL3
282 1 51.823997 70.000000 78.078003 # AL3
283 1 53.844002 67.980003 78.078003 # AL3
284 1 53.844002 70.000000 76.057999 # AL3
285 1 51.823997 67.980003 80.097000 # AL3
286 1 51.823997 70.000000 82.116997 # AL3
287 1 53.844002 67.980003 82.116997 # AL3
288 1 53.844002 70.000000 80.097000 # AL3
289 1 51.823997 67.980003 84.137001 # AL3
290 1 51.823997 70.000000 86.155998 # AL3
291 1 53.844002 67.980003 86.155998 # AL3
292 1 53.844002 70.000000 84.137001 # AL3
293 1 53.844002 70.000000 88.176003 # AL3
294 1 51.823997 74.039001 53.844002 # AL3
295 1 53.844002 72.019997 53.844002 # AL3
296 1 53.844002 74.039001 51.823997 # AL3
297 1 51.823997 72.019997 55.862999 # AL3
298 1 51.823997 74.039001 57.882999 # AL3
299 1 53.844002 72.019997 57.882999 # AL3
300 1 53.844002 74.039001 55.862999 # AL3
301 1 51.823997 72.019997 59.903000 # AL3
302 1 51.823997 74.039001 61.922001 # AL3
303 1 53.844002 72.019997 61.922001 # AL3
304 1 53.844002 74.039001 59.903000 # AL3
305 1 51.823997 72.019997 63.942001 # AL3
306 1 51.823997 74.039001 65.960999 # AL3
307 1 53.844002 72.019997 65.960999 # AL3
308 1 53.844002 74.039001 63.942001 # AL3
309 1 51.823997 72.019997 67.980003 # AL3
310 1 51.823997 74.039001 70.000000 # AL3
311 1 53.844002 72.019997 70.000000 # AL3
312 1 53.844002 74.039001 67.980003 # AL3
313 1 51.823997 72.019997 72.019997 # AL3
314 1 51.823997 74.039001 74.039001 # AL3
315 1 53.844002 72.019997 74.039001 # AL3
316 1 53.844002 74.039001 72.019997 # AL3
317 1 51.823997 72.019997 76.057999 # AL3
318 1 51.823997 74.039001 78.078003 # AL3
319 1 53.844002 72.019997 78.078003 # AL3
320 1 53.844002 74.039001 76.057999 # AL3
321 1 51.823997 72.019997 80.097000 # AL3
322 1 51.823997 74.039001 82.116997 # AL3
323 1 53.844002 72.019997 82.116997 # AL3
324 1 53.844002 74.039001 80.097000 # AL3
325 1 51.823997 72.019997 84.137001 # AL3
326 1 51.823997 74.039001 86.155998 # AL3
327 1 53.844002 72.019997 86.155998 # AL3
328 1 53.844002 74.039001 84.137001 # AL3
329 1 53.844002 74.039001 88.176003 # AL3
330 1 53.844002 76.057999 53.844002 # AL3
331 1 51.823997 76.057999 55.862999 # AL3
332 1 51.823997 78.078003 57.882999 # AL3
333 1 53.844002 76.057999 57.882999 # AL3
334 1 53.844002 78.078003 55.862999 # AL3
335 1 51.823997 76.057999 59.903000 # AL3
336 1 51.823997 78.078003 61.922001 # AL3
337 1 53.844002 76.057999 61.922001 # AL3
338 1 53.844002 78.078003 59.903000 # AL3
339 1 51.823997 76.057999 63.942001 # AL3
340 1 51.823997 78.078003 65.960999 # AL3
341 1 53.844002 76.057999 65.960999 # AL3
342 1 53.844002 78.078003 63.942001 # AL3
343 1 51.823997 76.057999 67.980003 # AL3
344 1 51.823997 78.078003 70.000000 # AL3
345 1 53.844002 76.057999 70.000000 # AL3
346 1 53.844002 78.078003 67.980003 # AL3
347 1 51.823997 76.057999 72.019997 # AL3
348 1 51.823997 78.078003 74.039001 # AL3
349 1 53.844002 76.057999 74.039001 # AL3
350 1 53.844002 78.078003 72.019997 # AL3
351 1 51.823997 76.057999 76.057999 # AL3
352 1 51.823997 78.078003 78.078003 # AL3
353 1 53.844002 76.057999 78.078003 # AL3
354 1 53.844002 78.078003 76.057999 # AL3
355 1 51.823997 76.057999 80.097000 # AL3
356 1 51.823997 78.078003 82.116997 # AL3
357 1 53.844002 76.057999 82.116997 # AL3
358 1 53.844002 78.078003 80.097000 # AL3
359 1 51.823997 76.057999 84.137001 # AL3
360 1 53.844002 76.057999 86.155998 # AL3
361 1 53.844002 78.078003 84.137001 # AL3
362 1 53.844002 80.097000 53.844002 # AL3
363 1 51.823997 82.116997 57.882999 # AL3
364 1 53.844002 80.097000 57.882999 # AL3
365 1 53.844002 82.116997 55.862999 # AL3
366 1 51.823997 80.097000 59.903000 # AL3
367 1 51.823997 82.116997 61.922001 # AL3
368 1 53.844002 80.097000 61.922001 # AL3
369 1 53.844002 82.116997 59.903000 # AL3
370 1 51.823997 80.097000 63.942001 # AL3
371 1 51.823997 82.116997 65.960999 # AL3
372 1 53.844002 80.097000 65.960999 # AL3
373 1 53.844002 82.116997 63.942001 # AL3
374 1 51.823997 80.097000 67.980003 # AL3
375 1 51.823997 82.116997 70.000000 # AL3
376 1 53.844002 80.097000 70.000000 # AL3
377 1 53.844002 82.116997 67.980003 # AL3
378 1 51.823997 80.097000 72.019997 # AL3
379 1 51.823997 82.116997 74.039001 # AL3
380 1 53.844002 80.097000 74.039001 # AL3
381 1 53.844002 82.116997 72.019997 # AL3
382 1 51.823997 80.097000 76.057999 # AL3
383 1 51.823997 82.116997 78.078003 # AL3
384 1 53.844002 80.097000 78.078003 # AL3
385 1 53.844002 82.116997 76.057999 # AL3
386 1 51.823997 80.097000 80.097000 # AL3
387 1 51.823997 82.116997 82.116997 # AL3
388 1 53.844002 80.097000 82.116997 # AL3
389 1 53.844002 82.116997 80.097000 # AL3
390 1 53.844002 80.097000 86.155998 # AL3
391 1 53.844002 82.116997 84.137001 # AL3
392 1 53.844002 84.137001 57.882999 # AL3
393 1 53.844002 84.137001 61.922001 # AL3
394 1 53.844002 86.155998 59.903000 # AL3
395 1 51.823997 84.137001 63.942001 # AL3
396 1 51.823997 86.155998 65.960999 # AL3
397 1 53.844002 84.137001 65.960999 # AL3
398 1 53.844002 86.155998 63.942001 # AL3
399 1 51.823997 84.137001 67.980003 # AL3
400 1 51.823997 86.155998 70.000000 # AL3
401 1 53.844002 84.137001 70.000000 # AL3
402 1 53.844002 86.155998 67.980003 # AL3
403 1 51.823997 84.137001 72.019997 # AL3
404 1 51.823997 86.155998 74.039001 # AL3
405 1 53.844002 84.137001 74.039001 # AL3
406 1 53.844002 86.155998 72.019997 # AL3
407 1 51.823997 84.137001 76.057999 # AL3
408 1 53.844002 84.137001 78.078003 # AL3
409 1 53.844002 86.155998 76.057999 # AL3
410 1 53.844002 84.137001 82.116997 # AL3
411 1 53.844002 86.155998 80.097000 # AL3
412 1 53.844002 88.176003 65.960999 # AL3
413 1 53.844002 88.176003 70.000000 # AL3
414 1 53.844002 88.176003 74.039001 # AL3
415 1 55.862999 49.805000 65.960999 # AL3
416 1 57.882999 49.805000 63.942001 # AL3
417 1 55.862999 49.805000 70.000000 # AL3
418 1 57.882999 49.805000 67.980003 # AL3
419 1 55.862999 49.805000 74.039001 # AL3
420 1 57.882999 49.805000 72.019997 # AL3
421 1 57.882999 49.805000 76.057999 # AL3
422 1 55.862999 53.844002 57.882999 # AL3
423 1 57.882999 51.823997 57.882999 # AL3
424 1 57.882999 53.844002 55.862999 # AL3
425 1 55.862999 53.844002 61.922001 # AL3
426 1 57.882999 51.823997 61.922001 # AL3
427 1 57.882999 53.844002 59.903000 # AL3
428 1 55.862999 51.823997 63.942001 # AL3
429 1 55.862999 53.844002 65.960999 # AL3
430 1 57.882999 51.823997 65.960999 # AL3
431 1 57.882999 53.844002 63.942001 # AL3
432 1 55.862999 51.823997 67.980003 # AL3
433 1 55.862999 53.844002 70.000000 # AL3
434 1 57.882999 51.823997 70.000000 # AL3
435 1 57.882999 53.844002 67.980003 # AL3
436 1 55.862999 51.823997 72.019997 # AL3
437 1 55.862999 53.844002 74.039001 # AL3
438 1 57.882999 51.823997 74.039001 # AL3
439 1 57.882999 53.844002 72.019997 # AL3
440 1 55.862999 51.823997 76.057999 # AL3
441 1 55.862999 53.844002 78.078003 # AL3
442 1 57.882999 51.823997 78.078003 # AL3
443 1 57.882999 53.844002 76.057999 # AL3
444 1 55.862999 53.844002 82.116997 # AL3
445 1 57.882999 51.823997 82.116997 # AL3
446 1 57.882999 53.844002 80.097000 # AL3
447 1 57.882999 53.844002 84.137001 # AL3
448 1 55.862999 57.882999 53.844002 # AL3
449 1 57.882999 55.862999 53.844002 # AL3
450 1 57.882999 57.882999 51.823997 # AL3
451 1 55.862999 55.862999 55.862999 # AL3
452 1 55.862999 57.882999 57.882999 # AL3
453 1 57.882999 55.862999 57.882999 # AL3
454 1 57.882999 57.882999 55.862999 # AL3
455 1 55.862999 55.862999 59.903000 # AL3
456 1 55.862999 57.882999 61.922001 # AL3
457 1 57.882999 55.862999 61.922001 # AL3
458 1 57.882999 57.882999 59.903000 # AL3
459 1 55.862999 55.862999 63.942001 # AL3
460 1 55.862999 57.882999 65.960999 # AL3
461 1 57.882999 55.862999 65.960999 # AL3
462 1 57.882999 57.882999 63.942001 # AL3
463 1 55.862999 55.862999 67.980003 # AL3
464 1 55.862999 57.882999 70.000000 # AL3
465 1 57.882999 55.862999 70.000000 # AL3
466 1 57.882999 57.882999 67.980003 # AL3
467 1 55.862999 55.862999 72.019997 # AL3
468 1 55.862999 57.882999 74.039001 # AL3
469 1 57.882999 55.862999 74.039001 # AL3
470 1 57.882999 57.882999 72.019997 # AL3
471 1 55.862999 55.862999 76.057999 # AL3
472 1 55.862999 57.882999 78.078003 # AL3
473 1 57.882999 55.862999 78.078003 # AL3
474 1 57.882999 57.882999 76.057999 # AL3
475 1 55.862999 55.862999 80.097000 # AL3
476 1 55.862999 57.882999 82.116997 # AL3
477 1 57.882999 55.862999 82.116997 # AL3
478 1 57.882999 57.882999 80.097000 # AL3
479 1 55.862999 55.862999 84.137001 # AL3
480 1 55.862999 57.882999 86.155998 # AL3
481 1 57.882999 55.862999 86.155998 # AL3
482 1 57.882999 57.882999 84.137001 # AL3
483 1 57.882999 57.882999 88.176003 # AL3
484 1 55.862999 61.922001 53.844002 # AL3
485 1 57.882999 59.903000 53.844002 # AL3
486 1 57.882999 61.922001 51.823997 # AL3
487 1 55.862999 59.903000 55.862999 # AL3
488 1 55.862999 61.922001 57.882999 # AL3
489 1 57.882999 59.903000 57.882999 # AL3
490 1 57.882999 61.922001 55.862999 # AL3
491 1 55.862999 59.903000 59.903000 # AL3
492 1 55.862999 61.922001 61.922001 # AL3
493 1 57.882999 59.903000 61.922001 # AL3
494 1 57.882999 61.922001 59.903000 # AL3
495 1 55.862999 59.903000 63.942001 # AL3
496 1 55.862999 61.922001 65.960999 # AL3
497 1 57.882999 59.903000 65.960999 # AL3
498 1 57.882999 61.922001 63.942001 # AL3
499 1 55.862999 59.903000 67.980003 # AL3
500 1 55.862999 61.922001 70.000000 # AL3
501 1 57.882999 59.903000 70.000000 # AL3
502 1 57.882999 61.922001 67.980003 # AL3
503 1 55.862999 59.903000 72.019997 # AL3
504 1 55.862999 61.922001 74.039001 # AL3
505 1 57.882999 59.903000 74.039001 # AL3
506 1 57.882999 61.922001 72.019997 # AL3
507 1 55.862999 59.903000 76.057999 # AL3
508 1 55.862999 61.922001 78.078003 # AL3
509 1 57.882999 59.903000 78.078003 # AL3
510 1 57.882999 61.922001 76.057999 # AL3
511 1 55.862999 59.903000 80.097000 # AL3
512 1 55.862999 61.922001 82.116997 # AL3
513 1 57.882999 59.903000 82.116997 # AL3
514 1 57.882999 61.922001 80.097000 # AL3
515 1 55.862999 59.903000 84.137001 # AL3
516 1 55.862999 61.922001 86.155998 # AL3
517 1 57.882999 59.903000 86.155998 # AL3
518 1 57.882999 61.922001 84.137001 # AL3
519 1 57.882999 61.922001 88.176003 # AL3
520 1 55.862999 65.960999 49.805000 # AL3
521 1 57.882999 63.942001 49.805000 # AL3
522 1 55.862999 63.942001 51.823997 # AL3
523 1 55.862999 65.960999 53.844002 # AL3
524 1 57.882999 63.942001 53.844002 # AL3
525 1 57.882999 65.960999 51.823997 # AL3
526 1 55.862999 63.942001 55.862999 # AL3
527 1 55.862999 65.960999 57.882999 # AL3
528 1 57.882999 63.942001 57.882999 # AL3
529 1 57.882999 65.960999 55.862999 # AL3
530 1 55.862999 63.942001 59.903000 # AL3
531 1 55.862999 65.960999 61.922001 # AL3
532 1 57.882999 63.942001 61.922001 # AL3
533 1 57.882999 65.960999 59.903000 # AL3
534 1 55.862999 63.942001 63.942001 # AL3
535 1 55.862999 65.960999 65.960999 # AL3
536 1 57.882999 63.942001 65.960999 # AL3
537 1 57.882999 65.960999 63.942001 # AL3
538 1 55.862999 63.942001 67.980003 # AL3
539 1 55.862999 65.960999 70.000000 # AL3
540 1 57.882999 63.942001 70.000000 # AL3
541 1 57.882999 65.960999 67.980003 # AL3
542 1 55.862999 63.942001 72.019997 # AL3
543 1 55.862999 65.960999 74.039001 # AL3
544 1 57.882999 63.942001 74.039001 # AL3
545 1 57.882999 65.960999 72.019997 # AL3
546 1 55.862999 63.942001 76.057999 # AL3
547 1 55.862999 65.960999 78.078003 # AL3
548 1 57.882999 63.942001 78.078003 # AL3
549 1 57.882999 65.960999 76.057999 # AL3
550 1 55.862999 63.942001 80.097000 # AL3
551 1 55.862999 65.960999 82.116997 # AL3
552 1 57.882999 63.942001 82.116997 # AL3
553 1 57.882999 65.960999 80.097000 # AL3
554 1 55.862999 63.942001 84.137001 # AL3
555 1 55.862999 65.960999 86.155998 # AL3
556 1 57.882999 63.942001 86.155998 # AL3
557 1 57.882999 65.960999 84.137001 # AL3
558 1 55.862999 63.942001 88.176003 # AL3
559 1 55.862999 65.960999 90.195000 # AL3
560 1 57.882999 63.942001 90.195000 # AL3
561 1 57.882999 65.960999 88.176003 # AL3
562 1 55.862999 70.000000 49.805000 # AL3
563 1 57.882999 67.980003 49.805000 # AL3
564 1 55.862999 67.980003 51.823997 # AL3
565 1 55.862999 70.000000 53.844002 # AL3
566 1 57.882999 67.980003 53.844002 # AL3
567 1 57.882999 70.000000 51.823997 # AL3
568 1 55.862999 67.980003 55.862999 # AL3
569 1 55.862999 70.000000 57.882999 # AL3
570 1 57.882999 67.980003 57.882999 # AL3
571 1 57.882999 70.000000 55.862999 # AL3
572 1 55.862999 67.980003 59.903000 # AL3
573 1 55.862999 70.000000 61.922001 # AL3
574 1 57.882999 67.980003 61.922001 # AL3
575 1 57.882999 70.000000 59.903000 # AL3
576 1 55.862999 67.980003 63.942001 # AL3
577 1 55.862999 70.000000 65.960999 # AL3
578 1 57.882999 67.980003 65.960999 # AL3
579 1 57.882999 70.000000 63.942001 # AL3
580 1 55.862999 67.980003 67.980003 # AL3
581 1 55.862999 70.000000 70.000000 # AL3
582 1 57.882999 67.980003 70.000000 # AL3
583 1 57.882999 70.000000 67.980003 # AL3
584 1 55.862999 67.980003 72.019997 # AL3
585 1 55.862999 70.000000 74.039001 # AL3
586 1 57.882999 67.980003 74.039001 # AL3
587 1 57.882999 70.000000 72.019997 # AL3
588 1 55.862999 67.980003 76.057999 # AL3
589 1 55.862999 70.000000 78.078003 # AL3
590 1 57.882999 67.980003 78.078003 # AL3
591 1 57.882999 70.000000 76.057999 # AL3
592 1 55.862999 67.980003 80.097000 # AL3
593 1 55.862999 70.000000 82.116997 # AL3
594 1 57.882999 67.980003 82.116997 # AL3
595 1 57.882999 70.000000 80.097000 # AL3
596 1 55.862999 67.980003 84.137001 # AL3
597 1 55.862999 70.000000 86.155998 # AL3
598 1 57.882999 67.980003 86.155998 # AL3
599 1 57.882999 70.000000 84.137001 # AL3
600 1 55.862999 67.980003 88.176003 # AL3
601 1 55.862999 70.000000 90.195000 # AL3
602 1 57.882999 67.980003 90.195000 # AL3
603 1 57.882999 70.000000 88.176003 # AL3
604 1 55.862999 74.039001 49.805000 # AL3
605 1 57.882999 72.019997 49.805000 # AL3
606 1 55.862999 72.019997 51.823997 # AL3
607 1 55.862999 74.039001 53.844002 # AL3
608 1 57.882999 72.019997 53.844002 # AL3
609 1 57.882999 74.039001 51.823997 # AL3
610 1 55.862999 72.019997 55.862999 # AL3
611 1 55.862999 74.039001 57.882999 # AL3
612 1 57.882999 72.019997 57.882999 # AL3
613 1 57.882999 74.039001 55.862999 # AL3
614 1 55.862999 72.019997 59.903000 # AL3
615 1 55.862999 74.039001 61.922001 # AL3
616 1 57.882999 72.019997 61.922001 # AL3
617 1 57.882999 74.039001 59.903000 # AL3
618 1 55.862999 72.019997 63.942001 # AL3
619 1 55.862999 74.039001 65.960999 # AL3
620 1 57.882999 72.019997 65.960999 # AL3
621 1 57.882999 74.039001 63.942001 # AL3
622 1 55.862999 72.019997 67.980003 # AL3
623 1 55.862999 74.039001 70.000000 # AL3
624 1 57.882999 72.019997 70.000000 # AL3
625 1 57.882999 74.039001 67.980003 # AL3
626 1 55.862999 72.019997 72.019997 # AL3
627 1 55.862999 74.039001 74.039001 # AL3
628 1 57.882999 72.019997 74.039001 # AL3
629 1 57.882999 74.039001 72.019997 # AL3
630 1 55.862999 72.019997 76.057999 # AL3
631 1 55.862999 74.039001 78.078003 # AL3
632 1 57.882999 72.019997 78.078003 # AL3
633 1 57.882999 74.039001 76.057999 # AL3
634 1 55.862999 72.019997 80.097000 # AL3
635 1 55.862999 74.039001 82.116997 # AL3
636 1 57.882999 72.019997 82.116997 # AL3
637 1 57.882999 74.039001 80.097000 # AL3
638 1 55.862999 72.019997 84.137001 # AL3
639 1 55.862999 74.039001 86.155998 # AL3
640 1 57.882999 72.019997 86.155998 # AL3
641 1 57.882999 74.039001 84.137001 # AL3
642 1 55.862999 72.019997 88.176003 # AL3
643 1 55.862999 74.039001 90.195000 # AL3
644 1 57.882999 72.019997 90.195000 # AL3
645 1 57.882999 74.039001 88.176003 # AL3
646 1 57.882999 76.057999 49.805000 # AL3
647 1 55.862999 76.057999 51.823997 # AL3
648 1 55.862999 78.078003 53.844002 # AL3
649 1 57.882999 76.057999 53.844002 # AL3
650 1 57.882999 78.078003 51.823997 # AL3
651 1 55.862999 76.057999 55.862999 # AL3
652 1 55.862999 78.078003 57.882999 # AL3
653 1 57.882999 76.057999 57.882999 # AL3
654 1 57.882999 78.078003 55.862999 # AL3
655 1 55.862999 76.057999 59.903000 # AL3
656 1 55.862999 78.078003 61.922001 # AL3
657 1 57.882999 76.057999 61.922001 # AL3
658 1 57.882999 78.078003 59.903000 # AL3
659 1 55.862999 76.057999 63.942001 # AL3
660 1 55.862999 78.078003 65.960999 # AL3
661 1 57.882999 76.057999 65.960999 # AL3
662 1 57.882999 78.078003 63.942001 # AL3
663 1 55.862999 76.057999 67.980003 # AL3
664 1 55.862999 78.078003 70.000000 # AL3
665 1 57.882999 76.057999 70.000000 # AL3
666 1 57.882999 78.078003 67.980003 # AL3
667 1 55.862999 76.057999 72.019997 # AL3
668 1 55.862999 78.078003 74.039001 # AL3
669 1 57.882999 76.057999 74.039001 # AL3
670 1 57.882999 78.078003 72.019997 # AL3
671 1 55.862999 76.057999 76.057999 # AL3
672 1 55.862999 78.078003 78.078003 # AL3
673 1 57.882999 76.057999 78.078003 # AL3
674 1 57.882999 78.078003 76.057999 # AL3
675 1 55.862999 76.057999 80.097000 # AL3
676 1 55.862999 78.078003 82.116997 # AL3
677 1 57.882999 76.057999 82.116997 # AL3
678 1 57.882999 78.078003 80.097000 # AL3
679 1 55.862999 76.057999 84.137001 # AL3
680 1 55.862999 78.078003 86.155998 # AL3
681 1 57.882999 76.057999 86.155998 # AL3
682 1 57.882999 78.078003 84.137001 # AL3
683 1 55.862999 76.057999 88.176003 # AL3
684 1 57.882999 76.057999 90.195000 # AL3
685 1 57.882999 78.078003 88.176003 # AL3
686 1 55.862999 82.116997 53.844002 # AL3
687 1 57.882999 80.097000 53.844002 # AL3
688 1 57.882999 82.116997 51.823997 # AL3
689 1 55.862999 80.097000 55.862999 # AL3